20
# CELL(abcABC):   -1.88973     1.88973     1.88973    90.00000    90.00000    90.00000  cell{atomic_unit}  Traj: x_centroid{angstrom} Step:          10  Bead:       0 
       C  3.77205e+00  3.42749e-01  1.38499e-03
       H  4.24304e+00 -2.25940e-01 -8.73669e-01
       H  4.48460e+00  1.19105e+00  1.39765e-01
       H  3.90657e+00 -2.51284e-01  9.54305e-01
       C  2.26128e+00  8.47393e-01 -1.15676e-01
       O  1.99781e+00  2.00907e+00  9.69700e-02
       N  1.32926e+00 -2.07551e-01 -1.65613e-01
       H  1.73211e+00 -1.11189e+00 -2.37413e-02
       C -8.19758e-02 -1.80055e-01 -2.91514e-02
       C -7.99732e-01  1.02964e+00 -1.54783e-01
       H -2.12714e-01  1.99634e+00 -1.27356e-01
       C -2.16947e+00  1.02107e+00 -1.35044e-01
       H -2.65332e+00  2.00053e+00  4.00305e-02
       C -8.46251e-01 -1.37294e+00  1.25390e-01
       H -2.58470e-01 -2.30780e+00  3.29113e-01
       C -2.22609e+00 -1.37687e+00  1.27200e-01
       H -2.72367e+00 -2.29852e+00  1.70790e-01
       C -2.88921e+00 -1.75001e-01 -3.74588e-02
       O -4.23656e+00 -6.94567e-03 -1.34150e-01
       H -4.62927e+00 -9.23042e-01 -1.88305e-01
20
# CELL(abcABC):   -1.88973     1.88973     1.88973    90.00000    90.00000    90.00000  cell{atomic_unit}  Traj: x_centroid{angstrom} Step:          20  Bead:       0 
       C  3.76767e+00  3.66358e-01  4.02362e-02
       H  4.17107e+00 -2.51237e-01 -7.36085e-01
       H  4.46496e+00  1.17884e+00  2.29578e-01
       H  3.86121e+00 -2.40807e-01  9.28427e-01
       C  2.25996e+00  8.50401e-01 -9.02981e-02
       O  1.99618e+00  2.04006e+00  7.67112e-02
       N  1.31926e+00 -1.96367e-01 -1.53584e-01
       H  1.79797e+00 -1.09513e+00  2.57602e-02
       C -8.21993e-02 -1.56001e-01 -3.70875e-02
       C -7.59813e-01  1.04754e+00 -1.20694e-01
       H -1.74357e-01  1.91299e+00 -2.55531e-01
       C -2.14917e+00  1.03588e+00 -1.19040e-01
       H -2.69348e+00  1.96824e+00 -8.20630e-02
       C -8.46142e-01 -1.37888e+00  1.29743e-01
       H -2.03102e-01 -2.25607e+00  1.57988e-01
       C -2.24811e+00 -1.36371e+00  1.57842e-01
       H -2.79126e+00 -2.36896e+00  9.34337e-02
       C -2.91099e+00 -1.49503e-01 -3.38906e-02
       O -4.23638e+00 -2.28315e-02 -1.23780e-01
       H -4.54328e+00 -9.20821e-01 -8.76642e-02
20
# CELL(abcABC):   -1.88973     1.88973     1.88973    90.00000    90.00000    90.00000  cell{atomic_unit}  Traj: x_centroid{angstrom} Step:          30  Bead:       0 
       C  3.76842e+00  3.75245e-01  8.58883e-02
       H  4.08063e+00 -3.22143e-01 -7.43254e-01
       H  4.39559e+00  1.26222e+00  2.52601e-01
       H  3.78948e+00 -3.00280e-01  9.88909e-01
       C  2.29803e+00  8.40614e-01 -4.15002e-02
       O  2.01519e+00  2.05400e+00  4.66783e-02
       N  1.35458e+00 -1.98431e-01 -1.34630e-01
       H  1.78675e+00 -1.09271e+00  2.22635e-02
       C -7.14930e-02 -1.68330e-01 -3.58443e-02
       C -7.08666e-01  1.05060e+00 -8.89884e-02
       H -1.04209e-01  1.97801e+00 -3.50621e-01
       C -2.11169e+00  1.04282e+00 -9.29167e-02
       H -2.73186e+00  1.97453e+00 -2.59477e-01
       C -7.97558e-01 -1.36826e+00  1.38067e-01
       H -2.43686e-01 -2.31649e+00  1.32204e-02
       C -2.23654e+00 -1.37739e+00  1.82729e-01
       H -2.77990e+00 -2.27320e+00  1.06158e-01
       C -2.87436e+00 -1.18869e-01 -1.87612e-02
       O -4.23020e+00 -4.91097e-02 -1.06736e-01
       H -4.59849e+00 -9.92833e-01  3.62139e-02
20
# CELL(abcABC):   -1.88973     1.88973     1.88973    90.00000    90.00000    90.00000  cell{atomic_unit}  Traj: x_centroid{angstrom} Step:          40  Bead:       0 
       C  3.74779e+00  3.65341e-01  1.25730e-01
       H  3.99599e+00 -2.42867e-01 -7.47453e-01
       H  4.33437e+00  1.29220e+00  2.07397e-01
       H  3.76776e+00 -2.63581e-01  1.00776e+00
       C  2.32897e+00  8.50519e-01  8.04864e-03
       O  2.03491e+00  2.04907e+00  3.43012e-03
       N  1.39882e+00 -1.98926e-01 -1.22789e-01
       H  1.75478e+00 -1.16075e+00 -2.03087e-02
       C -4.30438e-02 -1.88845e-01 -3.20898e-02
       C -6.79531e-01  1.07088e+00 -7.81306e-02
       H -1.52062e-01  1.93151e+00 -3.30427e-01
       C -2.08720e+00  1.07053e+00 -7.52708e-02
       H -2.63338e+00  1.91086e+00 -4.17112e-01
       C -7.64521e-01 -1.36179e+00  1.27438e-01
       H -3.25650e-01 -2.36086e+00 -4.70754e-02
       C -2.18580e+00 -1.36026e+00  1.85292e-01
       H -2.82244e+00 -2.30856e+00  1.64452e-01
       C -2.82288e+00 -1.13934e-01  8.21576e-03
       O -4.23622e+00 -8.14857e-02 -8.94499e-02
       H -4.61066e+00 -8.99034e-01  1.22340e-01
20
# CELL(abcABC):   -1.88973     1.88973     1.88973    90.00000    90.00000    90.00000  cell{atomic_unit}  Traj: x_centroid{angstrom} Step:          50  Bead:       0 
       C  3.69030e+00  3.39526e-01  1.44707e-01
       H  3.94513e+00 -1.69676e-01 -7.98280e-01
       H  4.32919e+00  1.21605e+00  1.56078e-01
       H  3.83790e+00 -2.64922e-01  1.06330e+00
       C  2.31217e+00  8.43764e-01  3.50540e-02
       O  2.02832e+00  2.02059e+00 -4.81550e-02
       N  1.40468e+00 -2.23049e-01 -1.24536e-01
       H  1.75272e+00 -1.17318e+00 -1.02884e-01
       C -1.76579e-02 -1.94103e-01 -3.58144e-02
       C -7.09315e-01  1.05481e+00 -8.37925e-02
       H -1.21708e-01  2.01628e+00 -2.83876e-01
       C -2.08894e+00  1.08257e+00 -7.67614e-02
       H -2.60373e+00  2.00625e+00 -4.95884e-01
       C -7.82643e-01 -1.38715e+00  8.81026e-02
       H -3.58944e-01 -2.37382e+00 -2.83238e-02
       C -2.15719e+00 -1.34158e+00  1.60444e-01
       H -2.73094e+00 -2.22417e+00  2.33611e-01
       C -2.82209e+00 -1.40286e-01  3.89548e-02
       O -4.25220e+00 -9.69609e-02 -8.15791e-02
       H -4.65505e+00 -9.90921e-01  2.39631e-01
